% Model:              Corrosion_simulation_1_modelAtStep_3.mph
% Version:            COMSOL 5.3.0.223
% Date:               Sep 13 2020, 01:15
% Dimension:          1
% Nodes:              337
% Expressions:        1
% Description:        Line graph
% x                       Height
0                         0.464071673271153
0.0014880952380952397     0.46413083107131936
0.0029761904761904726     0.4678111787341974
0.004464285714285712      0.4751080547746188
0.005952380952380952      0.48595013253017005
0.007440476190476199      0.5002168920022374
0.008928571428571432      0.5177583757206141
0.010416666666666678      0.5210680148118181
0.011904761904761918      0.516890393308943
0.013392857142857158      0.5318160793050228
0.014880952380952384      0.5483568318798098
0.016369047619047623      0.5663722293429251
0.01785714285714287       0.58572743431204
0.019345238095238103      0.6062953801094028
0.020833333333333343      0.6697512960951162
0.022321428571428582      0.7449803916605119
0.023809523809523815      0.7876089603188026
0.025297619047619062      0.8380362278766167
0.026785714285714295      0.8949440255439626
0.02827380952380954       0.9571723830097585
0.02976190476190476       1.0237457960087109
0.03125000000000001       1.6466419751620602
0.03273809523809524       2.2608662267519053
0.0342261904761905        3.152880736761138
0.03571428571428573       4.384472255756641
0.03720238095238095       5.741314845620999
0.03869047619047621       7.153172994697646
0.04017857142857143       8.593233079391048
0.04166666666666668       10.76717160200485
0.04315476190476191       9.530486475257788
0.04464285714285716       7.60068060033744
0.04613095238095239       5.720396074691813
0.04761904761904762       3.960769377071128
0.04910714285714287       2.5802165337354235
0.05059523809523809       2.369687678466873
0.052083333333333336      2.3976133188466724
0.05357142857142857       1.154225314191527
0.055059523809523815      1.0689936655124526
0.056547619047619034      0.9901883018330888
0.05803571428571427       0.9194500565897805
0.05952380952380953       0.8587473545438495
0.061011904761904746      0.8102926269622405
0.0625                    0.6973209561916218
0.06398809523809523       0.6028038611697497
0.0654761904761905        0.5880973196854082
0.06696428571428571       0.5742621543867785
0.06845238095238096       0.5613628018968659
0.06994047619047622       0.5494651763367978
0.07142857142857144       0.5386356587186937
0.07291666666666669       0.5214880400568159
0.07440476190476192       0.5077550644893005
0.07589285714285716       0.5019025183466923
0.07738095238095238       0.4964933961822151
0.0788690476190476        0.4915419939729362
0.08035714285714288       0.4870619485205062
0.08184523809523811       0.48306608211431057
0.08333333333333334       0.4801740564280037
0.08482142857142856       0.4795887693524822
0.08630952380952381       0.4789823759274514
0.08779761904761904       0.47896490860315366
0.08928571428571425       0.4795364274491235
0.09077380952380953       0.4806948291047943
0.09226190476190474       0.48243588522151315
0.09375                   0.47112618186821376
0.09523809523809526       0.4649631388364772
0.0967261904761905        0.4749342979767738
0.09821428571428573       0.48725666594825273
0.09970238095238096       0.5017542217865844
0.10119047619047622       0.5182412842879189
0.10267857142857142       0.5365313789937676
0.10416666666666666       0.6197565746553504
0.10565476190476192       0.7307908769891671
0.10714285714285715       0.7882935806545386
0.10863095238095238       0.853737330768821
0.11011904761904762       0.9255106183350124
0.1116071428571429        1.0022845764804935
0.11309523809523811       1.0830038060123892
0.11458333333333337       4.873270293802005
0.1160714285714286        5.475313195672187
0.11755952380952389       4.595804589405803
0.1190476190476191        7.240226704639351
0.1205357142857143        10.931564709039584
0.12202380952380959       14.893137452536894
0.1235119047619048        18.963281248625464
0.12500000000000003       16.6901269250679
0.12648809523809526       8.757109632658262
0.1279761904761905        7.225049806600121
0.12946428571428573       5.6992217642224965
0.13095238095238093       4.186497356599574
0.13244047619047622       2.7091324739567355
0.13392857142857142       1.3857186553857161
0.13541666666666669       1.0258678319875754
0.13690476190476195       0.883384433102583
0.13839285714285718       0.8239109247481775
0.1398809523809524        0.766886047015901
0.14136904761904764       0.7128973057618212
0.1428571428571429        0.6626836688637334
0.1443452380952381        0.6171576606847953
0.14583333333333334       0.5787114472388805
0.14732142857142858       0.5582211877047225
0.1488095238095238        0.536797544924715
0.15029761904761904       0.515788562028798
0.15178571428571425       0.4952470586698122
0.15327380952380953       0.4752336126545187
0.15476190476190474       0.45581759610730566
0.15625                   0.4291480321834824
0.15773809523809526       0.4109945923451452
0.15922619047619052       0.40086403333474563
0.16071428571428573       0.39083335945897735
0.16220238095238096       0.3809104523823892
0.16369047619047625       0.3711039458361867
0.16517857142857148       0.36142330180433624
0.16666666666666674       0.3515884312982248
0.16815476190476197       0.3461541064646765
0.16964285714285723       0.3410234678153824
0.17113095238095247       0.33590665958025434
0.17261904761904767       0.33080432354547396
0.174107142857143         0.32571713983908346
0.1755952380952382        0.3206458296670946
0.17708333333333345       0.31107258214076605
0.17857142857142871       0.302111403369067
0.18005952380952392       0.29768214458888176
0.18154761904761915       0.2932668342320088
0.18303571428571436       0.2888661118544822
0.18452380952380965       0.2844806544021618
0.18601190476190485       0.2801111787862893
0.18750000000000008       0.27633803409779706
0.18898809523809532       0.2725551305341225
0.19047619047619058       0.26819974372880684
0.19196428571428578       0.26385179866238856
0.19345238095238101       0.2595116522220742
0.1949404761904763        0.25517968437355776
0.19642857142857154       0.2508563000611772
0.19791666666666677       0.2462738920665306
0.19940476190476203       0.24335613930412764
0.20089285714285726       0.24071360498773484
0.20238095238095247       0.238078487535702
0.2038690476190477        0.2354510344797603
0.205357142857143         0.23283150370614708
0.2068452380952382        0.2302201639551374
0.20833333333333345       0.2303881736074204
0.2098214285714287        0.230614313398549
0.21130952380952392       0.22808496246241516
0.2127976190476191        0.22557149146604785
0.21428571428571433       0.22307441105454215
0.21577380952380962       0.2205942508089108
0.21726190476190485       0.21813155996517497
0.21875000000000008       0.21568003032829453
0.22023809523809532       0.21320447993060015
0.22172619047619055       0.21074863989316964
0.22321428571428578       0.20830607059472991
0.22470238095238096       0.2058772283819154
0.2261904761904763        0.2034625885764696
0.22767857142857148       0.20106264634836202
0.2291666666666667        0.19921233601870866
0.2306547619047619        0.19893931381752544
0.23214285714285723       0.1981489589758808
0.2336309523809524        0.19737589549450008
0.23511904761904764       0.19662032772266588
0.236607142857143         0.195882458542449
0.23809523809523817       0.19516248915774603
0.23958333333333345       0.18584846092885762
0.2410714285714287        0.1783527019738758
0.24255952380952392       0.17949734602332096
0.24404761904761915       0.1806693171201064
0.24553571428571438       0.18186774719691803
0.24702380952380967       0.1830918159194323
0.2485119047619049        0.18434074844246473
0.2500000000000001        0.18430609382246785
0.25148809523809534       0.1826427281152075
0.2529761904761905        0.18229091591178748
0.25446428571428575       0.18194295931304083
0.25595238095238093       0.18159887972488445
0.2574404761904762        0.18125869851882742
0.2589285714285714        0.18092243702831884
0.2604166666666667        0.18153298105152704
0.261904761904762         0.17875297321740705
0.26339285714285715       0.17504795752999347
0.26488095238095233       0.1713621150140346
0.2663690476190476        0.16769697670640435
0.2678571428571429        0.16405433472072484
0.2693452380952381        0.16043630098496414
0.27083333333333337       0.16670329941114856
0.27232142857142866       0.17622142442331962
0.27380952380952395       0.1758920182152161
0.27529761904761907       0.1755730611277011
0.2767857142857143        0.17526461535812363
0.27827380952380965       0.17496674246016045
0.2797619047619049        0.17467950330837723
0.2812500000000001        0.17855624131114894
0.2827380952380953        0.1824163158794614
0.2842261904761906        0.18214313531860638
0.2857142857142857        0.18189006476550693
0.28720238095238093       0.18165718084389582
0.2886904761904762        0.18144455482032373
0.2901785714285714        0.18125225251574725
0.29166666666666663       0.18063907508278035
0.29315476190476186       0.18145176450562422
0.2946428571428571        0.18273830458593548
0.2961309523809524        0.18405675167843566
0.29761904761904756       0.185406424973047
0.2991071428571429        0.18678664831146896
0.30059523809523814       0.1881967510665759
0.30208333333333337       0.19076468556501852
0.3035714285714286        0.1917265143373953
0.30505952380952384       0.19157906956681073
0.3065476190476191        0.19145116051679523
0.3080357142857143        0.19134299587226303
0.30952380952380965       0.1912548002958273
0.3110119047619049        0.1911868143248148
0.3125000000000001        0.19307060218698208
0.31398809523809534       0.19672945973542597
0.3154761904761905        0.1984668046149625
0.31696428571428575       0.20021368980021953
0.31845238095238093       0.20196986774724346
0.3199404761904762        0.20373509815259844
0.3214285714285714        0.20550914775136597
0.32291666666666663       0.20972314156388916
0.32440476190476186       0.21398883380978606
0.32589285714285715       0.21584195457609767
0.3273809523809524        0.21771338230631682
0.3288690476190476        0.21960265528445644
0.33035714285714296       0.22150932297680187
0.33184523809523814       0.22343294591157542
0.33333333333333337       0.22545384762508935
0.33482142857142855       0.22786909719565066
0.33630952380952384       0.23020806671933006
0.33779761904761896       0.2325513849843951
0.3392857142857142        0.23489893303393794
0.3407738095238095        0.23725059606172078
0.34226190476190466       0.2396062632363508
0.34374999999999994       0.23990305379084098
0.3452380952380952        0.24125064838843163
0.3467261904761904        0.24467117632043434
0.3482142857142857        0.24810144755815722
0.34970238095238093       0.2515410676314441
0.3511904761904762        0.2549896625134169
0.3526785714285714        0.25844687734784255
0.3541666666666667        0.2631419595785628
0.35565476190476186       0.26813675860424324
0.35714285714285715       0.27190899426368287
0.3586309523809524        0.27568797311880955
0.36011904761904756       0.27947343193132024
0.36160714285714285       0.28326512102918766
0.363095238095238         0.2870628034359065
0.36458333333333326       0.2957281399196583
0.3660714285714285        0.3057784379367465
0.3675595238095237        0.3109781917065446
0.3690476190476189        0.31618876230068316
0.37053571428571414       0.3214096559787013
0.3720238095238095        0.32664040782644876
0.37351190476190466       0.33188057972598206
0.3749999999999999        0.33374460041061715
0.3764880952380951        0.3381332490426002
0.3779761904761904        0.3459247509027575
0.3794642857142857        0.35373289041454986
0.38095238095238093       0.3615566902611431
0.3824404761904763        0.3693952460318656
0.3839285714285715        0.37724771971339577
0.3854166666666668        0.38129415531277017
0.38690476190476203       0.38736660038379744
0.3883928571428572        0.39738328613335844
0.38988095238095244       0.40751609534967137
0.39136904761904767       0.4177568255555769
0.39285714285714296       0.4280979473130342
0.39434523809523814       0.4385325459172513
0.39583333333333337       0.45270819198881834
0.3973214285714286        0.48022949860986697
0.3988095238095239        0.5046328496748382
0.40029761904761907       0.5294982263194715
0.4017857142857143        0.5547635938604064
0.40327380952380965       0.5803767602686851
0.4047619047619048        0.606293663977226
0.40625000000000006       0.6465938611233254
0.40773809523809534       0.7058903837471371
0.4092261904761906        0.7719222073151543
0.41071428571428575       0.8539957800700988
0.41220238095238093       0.9479590161282672
0.4136904761904763        1.0506277945294662
0.4151785714285714        1.1596917485617824
0.4166666666666667        2.340830009670562
0.41815476190476186       2.07743930950232
0.41964285714285715       2.4690310775181663
0.4211309523809524        4.119506260094639
0.42261904761904756       6.076591710864085
0.4241071428571429        8.121595042936216
0.42559523809523797       10.201811270411504
0.42708333333333326       12.031453910183261
0.4285714285714285        9.724229391104046
0.43005952380952384       7.710717375465268
0.431547619047619         5.750115647951342
0.4330357142857142        3.9225025756884664
0.4345238095238096        2.5327596643804826
0.4360119047619047        2.478818127617193
0.43749999999999994       2.522323175760444
0.43898809523809523       1.1147451978358869
0.44047619047619047       1.013144571537497
0.4419642857142856        0.9198164003691102
0.4434523809523808        0.8374874974243625
0.44494047619047616       0.7695864333052806
0.44642857142857134       0.7200108136094714
0.44791666666666663       0.6466066793704898
0.4494047619047619        0.5910128282944676
0.45089285714285715       0.5828350902429362
0.4523809523809523        0.5762668145472014
0.45386904761904756       0.5713635490209279
0.4553571428571429        0.5681684249178007
0.456845238095238         0.5667103380323805
0.4583333333333333        0.5681671907571189
0.45982142857142855       0.572484880743061
0.46130952380952384       0.5765597374817867
0.46279761904761896       0.5815367219527405
0.4642857142857142        0.5873927661792083
0.46577380952380953       0.594101784655021
0.46726190476190466       0.6016351945836336
0.4687499999999999        0.6177369138012127
0.4702380952380951        0.6748924563453111
0.47172619047619047       0.735049262922193
0.4732142857142856        0.8035763805625873
0.4747023809523807        0.8785265722896718
0.47619047619047616       0.9584004116788516
0.4776785714285713        1.042070176296964
0.4791666666666665        4.39811816441366
0.48065476190476175       5.056117952894386
0.4821428571428571        3.375346466392891
0.4836309523809522        3.881159542815783
0.48511904761904745       6.12229200097401
0.4866071428571428        8.8863489709249
0.4880952380952379        11.803043986911758
0.48958333333333326       15.020531863188985
0.4910714285714285        13.928906992096675
0.49255952380952384       12.65961318849795
0.49404761904761896       11.471706145553942
0.4955357142857142        10.39064924071083
0.49702380952380953       9.450558751224936
0.49851190476190466       8.696433756686183
0.5                       8.184510909450907
