% Model:              Corrosion_simulation_1_modelAtStep_1.mph
% Version:            COMSOL 5.3.0.223
% Date:               Sep 13 2020, 01:14
% Dimension:          1
% Nodes:              337
% Expressions:        1
% Description:        Line graph
% x                       Height
0                         3.026269889008596E-15
0.0014880952380952397     3.801123565659923E-15
0.0029761904761904726     1.8985445412845096E-15
0.004464285714285712      4.822517785908882E-15
0.005952380952380952      1.1520896186910522E-15
0.007440476190476199      3.3782234732684094E-15
0.008928571428571432      2.786016481202218E-15
0.010416666666666678      3.641170850707636E-15
0.011904761904761918      1.6489465143804526E-15
0.013392857142857158      2.988554383857102E-15
0.014880952380952384      2.3781404693489716E-15
0.016369047619047623      1.2309238837576166E-15
0.01785714285714287       2.0513653647710206E-15
0.019345238095238103      2.822100810286674E-15
0.020833333333333343      2.3408862587499765E-15
0.022321428571428582      2.976666722127185E-15
0.023809523809523815      2.1673533365303675E-15
0.025297619047619062      9.06107617918245E-16
0.026785714285714295      3.353653403138788E-15
0.02827380952380954       3.954536231281405E-15
0.02976190476190476       3.311113708314639E-15
0.03125000000000001       3.885106801400528E-15
0.03273809523809524       3.3862672474326567E-15
0.0342261904761905        1.968019882723768E-15
0.03571428571428573       4.362461245554287E-16
0.03720238095238095       1.5177465184019257E-15
0.03869047619047621       3.684128763028048E-15
0.04017857142857143       3.5019991995181368E-15
0.04166666666666668       4.444860345195648E-15
0.04315476190476191       4.9368533910654205E-15
0.04464285714285716       3.328053451935241E-15
0.04613095238095239       3.1485585304211723E-15
0.04761904761904762       1.891759025548413E-15
0.04910714285714287       3.694647729121001E-15
0.05059523809523809       2.383097239524664E-15
0.052083333333333336      3.3932911893488156E-15
0.05357142857142857       3.212882416043583E-15
0.055059523809523815      4.102528204557253E-15
0.056547619047619034      1.1683901814124344E-15
0.05803571428571427       2.593033771356453E-15
0.05952380952380953       3.654045063606922E-15
0.061011904761904746      4.8912126978060165E-15
0.0625                    5.557573085647179E-15
0.06398809523809523       1.126308083546689E-14
0.0654761904761905        4.061247586154898E-15
0.06696428571428571       2.7356602326587124E-15
0.06845238095238096       1.1714915228443774E-15
0.06994047619047622       2.385818383836034E-15
0.07142857142857144       6.811977576964453E-15
0.07291666666666669       4.452030477843392E-15
0.07440476190476192       7.20474714243148E-15
0.07589285714285716       2.513316148016636E-15
0.07738095238095238       5.682607799103907E-15
0.0788690476190476        4.27467830172857E-15
0.08035714285714288       3.5081536352912302E-15
0.08184523809523811       8.454562477899507E-15
0.08333333333333334       5.498875991835041E-15
0.08482142857142856       3.990216151935891E-15
0.08630952380952381       1.7142600569914884E-15
0.08779761904761904       9.852430867165093E-16
0.08928571428571425       8.881411873129514E-16
0.09077380952380953       3.185011653541721E-15
0.09226190476190474       4.7974250400312425E-15
0.09375                   3.2818528833034463E-15
0.09523809523809526       4.127825853334721E-15
0.0967261904761905        2.633819782275098E-15
0.09821428571428573       3.030388524536176E-15
0.09970238095238096       2.537443335053267E-15
0.10119047619047622       2.1049879988331373E-15
0.10267857142857142       3.896320933261362E-15
0.10416666666666666       4.0185981559403985E-15
0.10565476190476192       2.615284204039271E-15
0.10714285714285715       4.369739882344373E-15
0.10863095238095238       1.9167931818066243E-15
0.11011904761904762       2.2438404091009925E-15
0.1116071428571429        2.4777115791614577E-15
0.11309523809523811       3.4624830231918334E-15
0.11458333333333337       3.369663756694112E-15
0.1160714285714286        3.3717353845438237E-15
0.11755952380952389       2.2125471018890057E-15
0.1190476190476191        2.408660130579487E-15
0.1205357142857143        1.7188865948349812E-15
0.12202380952380959       3.85857617176632E-15
0.1235119047619048        2.9508854327990396E-15
0.12500000000000003       4.063002044827043E-15
0.12648809523809526       7.374199524430267E-15
0.1279761904761905        4.223580951206409E-15
0.12946428571428573       2.8989704082022367E-15
0.13095238095238093       3.2848964577701316E-15
0.13244047619047622       3.112911118733373E-15
0.13392857142857142       4.666612407991456E-15
0.13541666666666669       2.91108236790587E-15
0.13690476190476195       3.334174680227683E-15
0.13839285714285718       4.2939849960005465E-15
0.1398809523809524        4.083000265095207E-15
0.14136904761904764       1.6291877290650326E-15
0.1428571428571429        1.7769671902386516E-15
0.1443452380952381        2.8891247210165382E-15
0.14583333333333334       2.920678993921322E-15
0.14732142857142858       3.820011766287146E-15
0.1488095238095238        1.2845191435024696E-15
0.15029761904761904       8.972531656847377E-16
0.15178571428571425       1.5617616219760414E-15
0.15327380952380953       3.74265187187056E-15
0.15476190476190474       2.9252672414335105E-15
0.15625                   1.6634779663269999E-15
0.15773809523809526       4.998226576571268E-15
0.15922619047619052       3.607860720104636E-15
0.16071428571428573       2.3191311015429666E-15
0.16220238095238096       1.9521283285174802E-15
0.16369047619047625       6.143320795545957E-15
0.16517857142857148       2.6658571537232227E-15
0.16666666666666674       2.8507071433554544E-15
0.16815476190476197       3.631691678089326E-15
0.16964285714285723       2.690616053802907E-15
0.17113095238095247       2.5480566549203724E-15
0.17261904761904767       1.6434251696986942E-15
0.174107142857143         3.514528127843002E-15
0.1755952380952382        4.568324822905669E-15
0.17708333333333345       3.5391419904283323E-15
0.17857142857142871       2.743162844736551E-15
0.18005952380952392       2.391545496493394E-15
0.18154761904761915       2.308253238598511E-15
0.18303571428571436       1.824317293673011E-15
0.18452380952380965       1.5652689043371021E-15
0.18601190476190485       1.728197386833097E-15
0.18750000000000008       2.6609431943392395E-15
0.18898809523809532       1.651560983965978E-15
0.19047619047619058       2.1499677807442896E-15
0.19196428571428578       1.1617096664549003E-15
0.19345238095238101       1.9330829710931775E-15
0.1949404761904763        1.602414116880448E-15
0.19642857142857154       3.587014877356127E-15
0.19791666666666677       1.3809651752336181E-15
0.19940476190476203       3.543860760121048E-15
0.20089285714285726       1.5018886186010353E-15
0.20238095238095247       4.044288621719851E-15
0.2038690476190477        2.8606669265399872E-15
0.205357142857143         8.850680569107528E-16
0.2068452380952382        3.1082849818920616E-15
0.20833333333333345       3.10251294353425E-15
0.2098214285714287        2.0739622832968823E-15
0.21130952380952392       1.6714896731463373E-15
0.2127976190476191        3.141046799225419E-15
0.21428571428571433       2.1164310609158586E-15
0.21577380952380962       2.406563637383388E-15
0.21726190476190485       1.1538231422233004E-15
0.21875000000000008       3.017665285100342E-15
0.22023809523809532       3.589615125623927E-15
0.22172619047619055       3.197328790446912E-15
0.22321428571428578       3.588099932507561E-15
0.22470238095238096       2.2155748340208597E-15
0.2261904761904763        2.272811473626066E-15
0.22767857142857148       1.811704116605521E-15
0.2291666666666667        1.7006706139092343E-15
0.2306547619047619        1.8362246368735206E-15
0.23214285714285723       2.403789251786951E-15
0.2336309523809524        1.4590937390081316E-15
0.23511904761904764       1.6914812661847724E-15
0.236607142857143         8.215876099674254E-16
0.23809523809523817       1.8148532444576724E-15
0.23958333333333345       2.0289249353857575E-15
0.2410714285714287        4.124320771456889E-15
0.24255952380952392       3.4351209182425567E-15
0.24404761904761915       2.0476008585633922E-15
0.24553571428571438       1.6316434464697843E-15
0.24702380952380967       2.413062628016421E-15
0.2485119047619049        4.4662116747858165E-15
0.2500000000000001        3.3488608703332996E-15
0.25148809523809534       2.2214358279030784E-15
0.2529761904761905        1.6227203504257942E-15
0.25446428571428575       2.337235914827295E-15
0.25595238095238093       2.153467403786914E-15
0.2574404761904762        2.6515515341876744E-15
0.2589285714285714        3.4550274986851583E-15
0.2604166666666667        3.2263144884515963E-15
0.261904761904762         3.7230442369389245E-15
0.26339285714285715       3.001977177124891E-15
0.26488095238095233       1.903994107405491E-15
0.2663690476190476        1.555519561968281E-15
0.2678571428571429        2.17602948819935E-15
0.2693452380952381        2.5992893236190767E-15
0.27083333333333337       2.8261618490057132E-15
0.27232142857142866       3.934497000336726E-15
0.27380952380952395       1.1317604162382939E-15
0.27529761904761907       2.407295412552128E-15
0.2767857142857143        1.612984168316188E-15
0.27827380952380965       2.1720842998384937E-15
0.2797619047619049        3.3539420760774975E-15
0.2812500000000001        2.5234158406661254E-15
0.2827380952380953        6.0162344132653236E-15
0.2842261904761906        3.6661919807977255E-15
0.2857142857142857        3.0544623949775832E-15
0.28720238095238093       2.7270122640465603E-15
0.2886904761904762        4.139267728260254E-15
0.2901785714285714        1.6518367113132497E-15
0.29166666666666663       2.173859892381366E-15
0.29315476190476186       2.6685151597462703E-15
0.2946428571428571        2.0021259427930575E-15
0.2961309523809524        3.641877340415947E-15
0.29761904761904756       2.2882039655351235E-15
0.2991071428571429        3.21245968750051E-15
0.30059523809523814       2.6342873644289666E-15
0.30208333333333337       2.313182470645898E-15
0.3035714285714286        2.4879624707352442E-15
0.30505952380952384       2.0893045547836827E-15
0.3065476190476191        1.526965344777891E-15
0.3080357142857143        1.4158646989717705E-15
0.30952380952380965       2.135542466738555E-15
0.3110119047619049        2.506635853812915E-15
0.3125000000000001        1.6143922681745058E-15
0.31398809523809534       2.119966856874255E-15
0.3154761904761905        9.58234212512015E-16
0.31696428571428575       2.8575671845324328E-15
0.31845238095238093       2.430891795996854E-15
0.3199404761904762        3.59320345978265E-15
0.3214285714285714        2.861642544745022E-15
0.32291666666666663       1.6464541333705339E-15
0.32440476190476186       2.7581540444784195E-15
0.32589285714285715       1.1883724290142157E-15
0.3273809523809524        1.2039309344006149E-15
0.3288690476190476        1.503993494411288E-15
0.33035714285714296       1.317151574767003E-15
0.33184523809523814       3.7153075292413095E-15
0.33333333333333337       2.7564677932337325E-15
0.33482142857142855       3.3394465490566755E-15
0.33630952380952384       1.8346107993236006E-15
0.33779761904761896       1.7666644846510911E-15
0.3392857142857142        2.653199240554301E-15
0.3407738095238095        2.61260689265542E-15
0.34226190476190466       1.845537094701745E-15
0.34374999999999994       2.8871996916533524E-15
0.3452380952380952        3.192499014330365E-15
0.3467261904761904        1.3285759571449543E-15
0.3482142857142857        2.5973135364083784E-15
0.34970238095238093       1.856398142129431E-15
0.3511904761904762        1.6237594182875736E-15
0.3526785714285714        1.7997392113663683E-15
0.3541666666666667        1.9457194558084113E-15
0.35565476190476186       3.7110400429350466E-15
0.35714285714285715       3.879337994689825E-15
0.3586309523809524        1.859574945643688E-15
0.36011904761904756       2.3061558135282628E-15
0.36160714285714285       3.6077830925314206E-15
0.363095238095238         2.2628679749409482E-15
0.36458333333333326       1.9795098197814407E-15
0.3660714285714285        2.9546207787028237E-15
0.3675595238095237        3.0634489666451677E-15
0.3690476190476189        2.8579083600764937E-15
0.37053571428571414       2.6080876190454805E-15
0.3720238095238095        2.3914196037930686E-15
0.37351190476190466       1.982043899034723E-15
0.3749999999999999        4.0727468453088615E-15
0.3764880952380951        3.2854147171551718E-15
0.3779761904761904        2.509149736207698E-15
0.3794642857142857        2.4018644623709245E-15
0.38095238095238093       1.3423347223437322E-15
0.3824404761904763        1.9009186396518824E-15
0.3839285714285715        1.6542124841233026E-15
0.3854166666666668        1.7187082716054897E-15
0.38690476190476203       4.90249771318663E-15
0.3883928571428572        2.6491125751200336E-15
0.38988095238095244       3.3833858274603084E-15
0.39136904761904767       1.9014178172972147E-15
0.39285714285714296       1.5936284533389572E-15
0.39434523809523814       4.072496061085304E-15
0.39583333333333337       3.320647460658098E-15
0.3973214285714286        2.796629412136378E-15
0.3988095238095239        4.8892144809187125E-15
0.40029761904761907       3.1751095520959456E-15
0.4017857142857143        4.439103819669631E-15
0.40327380952380965       2.2529486557649063E-15
0.4047619047619048        1.6582725469988479E-15
0.40625000000000006       1.2249957011210798E-15
0.40773809523809534       2.8572726958077824E-15
0.4092261904761906        2.9176721660556256E-15
0.41071428571428575       1.4969183572155168E-15
0.41220238095238093       1.923114114589037E-15
0.4136904761904763        2.8058686728541534E-15
0.4151785714285714        2.067032018428551E-15
0.4166666666666667        1.946276142150448E-15
0.41815476190476186       1.964172428403061E-15
0.41964285714285715       1.5191684704187633E-15
0.4211309523809524        2.236213472130295E-15
0.42261904761904756       1.457141279077903E-15
0.4241071428571429        3.1831244677548904E-15
0.42559523809523797       2.41450914364017E-15
0.42708333333333326       3.015791977190623E-15
0.4285714285714285        3.708624169748079E-15
0.43005952380952384       2.4698807695367707E-15
0.431547619047619         2.7283851112921015E-15
0.4330357142857142        3.0422252361596324E-15
0.4345238095238096        2.8126642152652263E-15
0.4360119047619047        3.9942578536664795E-15
0.43749999999999994       4.913267618821481E-15
0.43898809523809523       2.5070574301819127E-15
0.44047619047619047       2.8064327770412107E-15
0.4419642857142856        2.7567575269190796E-15
0.4434523809523808        2.678628543136018E-15
0.44494047619047616       4.402811372341855E-15
0.44642857142857134       1.9465542750287675E-15
0.44791666666666663       4.11477824005949E-15
0.4494047619047619        6.4757971927030395E-15
0.45089285714285715       6.047719613149994E-15
0.4523809523809523        7.310251298206857E-15
0.45386904761904756       6.481282612568019E-15
0.4553571428571429        3.2262106407896256E-15
0.456845238095238         7.304475424688361E-15
0.4583333333333333        5.689414804044665E-15
0.45982142857142855       2.7995277299707206E-15
0.46130952380952384       1.6694508370175332E-15
0.46279761904761896       3.010635097959419E-15
0.4642857142857142        1.999288156835526E-15
0.46577380952380953       2.2016400926701534E-15
0.46726190476190466       1.931437718130072E-15
0.4687499999999999        3.320342473253426E-15
0.4702380952380951        4.999163118747227E-15
0.47172619047619047       2.0608359682122508E-15
0.4732142857142856        3.644127982784676E-15
0.4747023809523807        3.986390972571761E-15
0.47619047619047616       3.9311278408744665E-15
0.4776785714285713        4.3946993503239634E-15
0.4791666666666665        3.676551027715659E-15
0.48065476190476175       3.428283902825058E-15
0.4821428571428571        2.316461827669346E-15
0.4836309523809522        1.7395377232538665E-15
0.48511904761904745       1.776837064683993E-15
0.4866071428571428        3.0306727556416487E-15
0.4880952380952379        2.1570402881596964E-15
0.48958333333333326       2.468232532867598E-15
0.4910714285714285        2.3453951912073846E-15
0.49255952380952384       4.286188976620633E-15
0.49404761904761896       4.8750396802666355E-15
0.4955357142857142        1.779638123566568E-15
0.49702380952380953       4.6376393902572454E-15
0.49851190476190466       1.4291841697459923E-14
0.5                       8.901347752859109E-15
